#test_frame
125 atoms
2 atom types
0.0  10  xlo xhi
0.0  10  ylo yhi
0.0  10  zlo zhi
0  0  0  xy xz yz

Masses

1  1  
2  1  

Atoms # full

1  0  1  0   4.9525801   0.038693439   5.3390626
2  0  1  0   8.3357845   3.4230373   0.68111627
3  0  1  0   4.3119025   4.6139722   3.9217183
4  0  1  0   7.2092113   3.5575252   6.4385973
5  0  1  0   2.0972444   2.1913128   0.46763103
6  0  1  0   6.7288049   4.3987166   8.596693
7  0  1  0   2.9816672   4.0487751   2.2592423
8  0  1  0   9.1906087   5.0210693   7.502719
9  0  1  0   2.0672287   0.79812258   3.2632424
10  0  1  0   6.5752226   1.2524661   3.5064166
11  0  1  0   5.8851672   8.4981469   8.0838065
12  0  1  0   1.3685505   4.2362591   9.7336232
13  0  1  0   7.6066603   8.578484   1.5471137
14  0  1  0   3.5941812   0.56396852   3.717578
15  0  1  0   1.5334983   5.4298227   6.5268973
16  0  1  0   5.2596309   7.5796613   0.37839239
17  0  1  0   9.0406642   1.5279969   6.1121284
18  0  1  0   8.6685174   2.5409207   4.6872907
19  0  1  0   2.0428838   1.2388714   7.6412143
20  0  1  0   6.250089   5.2632786   7.521444
21  0  1  0   0.37194551   5.9433814   7.1609492
22  0  1  0   8.6202124   9.3854356   4.2144653
23  0  1  0   6.9847007   5.2310898   4.641539
24  0  1  0   1.031989   4.4726503   5.3979478
25  0  1  0   1.141655   5.6862275   8.6600763
26  0  1  0   8.5109646   7.1134044   2.2277609
27  0  1  0   0.81728215   8.3443565   3.0260579
28  0  1  0   8.7150595   6.4500271   4.8304239
29  0  1  0   7.1133296   9.7747654   9.2740666
30  0  1  0   5.413081   5.7578516   5.9412202
31  0  1  0   4.2182004   7.6286922   8.1416553
32  0  1  0   4.5389116   8.8531047   0.12076481
33  0  1  0   5.7899337   8.3745182   3.7499619
34  0  1  0   7.687325   2.4506459   9.4805956
35  0  1  0   8.3896984   0.99406335   0.71502406
36  0  1  0   9.0339475   2.8521753   1.8552162
37  0  1  0   1.0225026   8.6420569   0.35891156
38  0  1  0   0.031212991   0.5172506   2.3851139
39  0  1  0   7.6622567   1.6073499   8.0227882
40  0  1  0   1.0831861   0.084995505   7.8114222
41  0  1  0   3.6167906   7.503624   1.8410154
42  0  1  0   8.8386661   8.3171589   6.8564002
43  0  1  0   0.26249303   3.4870008   4.0949959
44  0  1  0   2.0688377   7.8330152   7.5503067
45  0  1  0   1.1918872   4.7304422   0.62049675
46  0  1  0   9.4230736   5.0967142   2.121021
47  0  1  0   6.6703701   7.987729   7.2123483
48  0  1  0   6.1334863   2.3199146   4.0230526
49  0  1  0   6.0900152   7.0416857   3.8238654
50  0  1  0   9.6121418   6.3287981   5.9435856
51  0  1  0   4.390223   1.2115929   2.0360858
52  0  1  0   7.2807479   1.7031634   6.7324252
53  0  1  0   8.149579   7.9007934   4.4641265
54  0  1  0   8.8482617   3.9989575   8.5308603
55  0  1  0   8.7223407   0.010523598   3.2504671
56  0  1  0   0.55361136   9.06182   5.2056251
57  0  1  0   8.7207933   2.5444938   8.8448789
58  0  1  0   9.7991646   0.88355754   2.2297187
59  0  1  0   0.80959356   8.8954473   9.7376323
60  0  1  0   4.5171288   6.6778664   6.6946862
61  0  1  0   5.3134711   8.5563171   2.1860447
62  0  1  0   0.98991901   1.3317151   0.76905686
63  0  1  0   2.7500094   8.8204023   7.9644567
64  0  1  0   4.3901692   3.287118   3.5399865
65  0  1  0   3.2238105   4.0240488   7.1021743
66  0  1  0   4.1490164   8.0626226   5.5062195
67  0  1  0   6.759203   2.9634956   8.2666553
68  0  1  0   0.16866054   4.3098523   2.1186617
69  0  1  0   1.2829764   8.6374471   6.4772292
70  0  1  0   8.7725671   6.4445079   7.8847177
71  0  1  0   6.8945202   7.9056745   3.1911667
72  0  1  0   8.2472924   0.051777446   9.5516484
73  0  1  0   2.878127   1.7542676   5.8986619
74  0  1  0   0.21694709   9.6364785   8.4934272
75  0  1  0   0.55768945   0.7323791   9.1409144
76  0  2  0   0.40154554   9.9798832   0.47539086
77  0  2  0   2.1000515   2.8132802   2.0297211
78  0  2  0   8.5746348   1.3944088   2.8901601
79  0  2  0   9.9302554   4.0115535   3.1717631
80  0  2  0   5.4034804   1.9149915   7.2161374
81  0  2  0   4.8845185   0.8696932   0.54869545
82  0  2  0   8.1836845   5.5780759   3.1985352
83  0  2  0   7.4105023   9.3000303   4.1408903
84  0  2  0   4.7217611   0.78964666   7.3440515
85  0  2  0   5.2721348   5.4714525   2.0357542
86  0  2  0   1.5555225   3.8875668   3.1512121
87  0  2  0   9.1680146   8.8003029   9.7004864
88  0  2  0   5.1900735   6.7460656   2.1780422
89  0  2  0   0.88476719   2.302409   8.6378947
90  0  2  0   4.0811065   6.1714755   0.10093149
91  0  2  0   1.9526025   9.8819832   5.7739458
92  0  2  0   4.4709284   9.8398564   1.3389537
93  0  2  0   9.2319608   6.8551088   1.1241345
94  0  2  0   7.5351113   2.5141812   2.0388943
95  0  2  0   5.3461192   5.1556446   9.5792812
96  0  2  0   2.5255723   8.8693428   4.8374068
97  0  2  0   6.2415314   4.2969176   3.2395975
98  0  2  0   3.9522141   0.1090975   0.88361118
99  0  2  0   6.160804   9.8603886   4.6096273
100  0  2  0   2.2868951   4.8437818   2.9667676
101  0  2  0   2.8090012   3.0169799   8.7281089
102  0  2  0   6.0585304   1.3982677   5.5959892
103  0  2  0   3.1404456   7.9068519   0.73373104
104  0  2  0   6.3183494   1.3075774   9.2824813
105  0  2  0   0.20025904   9.2953437   6.5016409
106  0  2  0   0.86388817   7.3477855   7.4118811
107  0  2  0   0.19412885   3.2386376   0.16687625
108  0  2  0   4.3484646   3.603622   5.2927264
109  0  2  0   6.4331701   2.88182   0.92974188
110  0  2  0   5.4615372   4.2180802   5.5087565
111  0  2  0   0.53707772   6.9399703   2.4361225
112  0  2  0   7.6872591   6.9039088   3.2893258
113  0  2  0   8.1162471   6.4333099   6.4575664
114  0  2  0   3.022775   5.8649883   5.8096013
115  0  2  0   5.6750955   4.2846711   1.394981
116  0  2  0   5.3960631   0.42751722   9.1991642
117  0  2  0   8.1625622   5.7951869   1.1343855
118  0  2  0   9.2967445   6.1191604   9.2712901
119  0  2  0   7.6878634   3.4407616   5.1653207
120  0  2  0   1.8257518   5.8771222   0.95422752
121  0  2  0   2.06884   6.4165269   8.9919865
122  0  2  0   6.1084365   9.780256   0.6855189
123  0  2  0   2.5584517   0.4842824   5.7653971
124  0  2  0   4.932325   3.9539515   0.3049803
125  0  2  0   2.0205708   6.5960658   5.7959679
